LAMMPS Description

567	atoms
5786	bonds
0	angles
0	dihedrals
400	impropers

7	atom types
75	bond types
0	angle types
0	dihedral types
400	improper types

0.00000000	8.00000000	xlo xhi
0.00000000	8.00000000	ylo yhi
0.00000000	8.00000000	zlo zhi

Masses

1 0.00268792
2 0.00417896
3 0.00580591
4 0.00744496
5 0.01027327
6 0.01281516
7 0.01434021

Bond Coeffs

1 -1.908956358  0.000000000
2 -1.577418430  0.000000000
3 -1.434336540  0.000000000
4 -1.233336363  0.000000000
5 -1.102323118  0.000000000
6 -0.795235768  0.000000000
7 -0.774150648  0.000000000
8 -0.606329396  0.000000000
9 -0.559219194  0.000000000
10 -0.530876216  0.000000000
11 -0.395348035  0.000000000
12 -0.387075324  0.000000000
13 -0.303164698  0.000000000
14 -0.232993289  0.000000000
15 -0.197674018  0.000000000
16 -0.149764029  0.000000000
17 -0.116496644  0.000000000
18 -0.095216318  0.000000000
19 -0.074882015  0.000000000
20  0.003344213  0.000000000
21  0.006688426  0.000000000
22  0.052499949  0.000000000
23  0.104999897  0.000000000
24  0.143730815  0.000000000
25  0.266667438  0.000000000
26  0.282472805  0.000000000
27  0.326910625  0.000000000
28  0.381517278  0.000000000
29  0.412692464  0.000000000
30  0.426066998  0.000000000
31  0.442684431  0.000000000
32  0.445376154  0.000000000
33  0.456196187  0.000000000
34  0.476428993  0.000000000
35  0.502677258  0.000000000
36  0.511232987  0.000000000
37  0.516331230  0.000000000
38  0.526742863  0.000000000
39  0.533334877  0.000000000
40  0.535964385  0.000000000
41  0.543930847  0.000000000
42  0.551686598  0.000000000
43  0.616878610  0.000000000
44  0.662411108  0.000000000
45  0.691761450  0.000000000
46  0.725605639  0.000000000
47  0.765687681  0.000000000
48  0.789212614  0.000000000
49  0.792818643  0.000000000
50  0.811571474  0.000000000
51  0.822723648  0.000000000
52  0.836237886  0.000000000
53  0.853264813  0.000000000
54  0.876452592  0.000000000
55  0.885368863  0.000000000
56  0.890752307  0.000000000
57  0.897148654  0.000000000
58  0.933663805  0.000000000
59  0.937282058  0.000000000
60  0.984838394  0.000000000
61  1.005354517  0.000000000
62  1.022465973  0.000000000
63  1.053485726  0.000000000
64  1.062440121  0.000000000
65  1.081298802  0.000000000
66  1.233757219  0.000000000
67  1.324822217  0.000000000
68  1.383522900  0.000000000
69  1.451211277  0.000000000
70  1.531375362  0.000000000
71  1.585637287  0.000000000
72  1.623142947  0.000000000
73  1.645447297  0.000000000
74  1.752905183  0.000000000
75  1.874564117  0.000000000

Improper Coeffs

1 62.080000000 3042.000000000  0.006819001 26 17 18 29
2 62.080000000 3042.000000000  0.005271665 29 28 25 26
3 62.080000000 3042.000000000  0.003265002 27 28 29 30
4 62.080000000 3042.000000000  0.004026144 27 30 19 20
5 62.080000000 3042.000000000  0.004618176 29 18 19 30
6 62.080000000 3042.000000000  0.003265002 31 28 27 32
7 62.080000000 3042.000000000  0.004618176 31 32 21 22
8 62.080000000 3042.000000000  0.004026144 27 20 21 32
9 62.080000000 3042.000000000  0.005271665 24 25 28 31
10 62.080000000 3042.000000000  0.006819001 31 22 23 24
11 62.080000000 3042.000000000  0.006819001 42 33 34 45
12 62.080000000 3042.000000000  0.005271665 45 44 41 42
13 62.080000000 3042.000000000  0.003265002 43 44 45 46
14 62.080000000 3042.000000000  0.004026144 43 46 35 36
15 62.080000000 3042.000000000  0.004618176 45 34 35 46
16 62.080000000 3042.000000000  0.003265002 47 44 43 48
17 62.080000000 3042.000000000  0.004618176 47 48 37 38
18 62.080000000 3042.000000000  0.004026144 43 36 37 48
19 62.080000000 3042.000000000  0.005271665 40 41 44 47
20 62.080000000 3042.000000000  0.006819001 47 38 39 40
21 62.080000000 3042.000000000  0.006819001 58 49 50 61
22 62.080000000 3042.000000000  0.005271665 61 60 57 58
23 62.080000000 3042.000000000  0.003265002 59 60 61 62
24 62.080000000 3042.000000000  0.004026144 59 62 51 52
25 62.080000000 3042.000000000  0.004618176 61 50 51 62
26 62.080000000 3042.000000000  0.003265002 63 60 59 64
27 62.080000000 3042.000000000  0.004618176 63 64 53 54
28 62.080000000 3042.000000000  0.004026144 59 52 53 64
29 62.080000000 3042.000000000  0.005271665 56 57 60 63
30 62.080000000 3042.000000000  0.006819001 63 54 55 56
31 62.080000000 3042.000000000  0.006819001 74 65 66 77
32 62.080000000 3042.000000000  0.005271665 77 76 73 74
33 62.080000000 3042.000000000  0.003265002 75 76 77 78
34 62.080000000 3042.000000000  0.004026144 75 78 67 68
35 62.080000000 3042.000000000  0.004618176 77 66 67 78
36 62.080000000 3042.000000000  0.003265002 79 76 75 80
37 62.080000000 3042.000000000  0.004618176 79 80 69 70
38 62.080000000 3042.000000000  0.004026144 75 68 69 80
39 62.080000000 3042.000000000  0.005271665 72 73 76 79
40 62.080000000 3042.000000000  0.006819001 79 70 71 72
41 62.080000000 3042.000000000  0.006819001 90 81 82 93
42 62.080000000 3042.000000000  0.005271665 93 92 89 90
43 62.080000000 3042.000000000  0.003265002 91 92 93 94
44 62.080000000 3042.000000000  0.004026144 91 94 83 84
45 62.080000000 3042.000000000  0.004618176 93 82 83 94
46 62.080000000 3042.000000000  0.003265002 95 92 91 96
47 62.080000000 3042.000000000  0.004618176 95 96 85 86
48 62.080000000 3042.000000000  0.004026144 91 84 85 96
49 62.080000000 3042.000000000  0.005271665 88 89 92 95
50 62.080000000 3042.000000000  0.006819001 95 86 87 88
51 62.080000000 3042.000000000  0.006819001 106 97 98 109
52 62.080000000 3042.000000000  0.005271665 109 108 105 106
53 62.080000000 3042.000000000  0.003265002 107 108 109 110
54 62.080000000 3042.000000000  0.004026144 107 110 99 100
55 62.080000000 3042.000000000  0.004618176 109 98 99 110
56 62.080000000 3042.000000000  0.003265002 111 108 107 112
57 62.080000000 3042.000000000  0.004618176 111 112 101 102
58 62.080000000 3042.000000000  0.004026144 107 100 101 112
59 62.080000000 3042.000000000  0.005271665 104 105 108 111
60 62.080000000 3042.000000000  0.006819001 111 102 103 104
61 62.080000000 3042.000000000  0.006819001 122 113 114 125
62 62.080000000 3042.000000000  0.005271665 125 124 121 122
63 62.080000000 3042.000000000  0.003265002 123 124 125 126
64 62.080000000 3042.000000000  0.004026144 123 126 115 116
65 62.080000000 3042.000000000  0.004618176 125 114 115 126
66 62.080000000 3042.000000000  0.003265002 127 124 123 128
67 62.080000000 3042.000000000  0.004618176 127 128 117 118
68 62.080000000 3042.000000000  0.004026144 123 116 117 128
69 62.080000000 3042.000000000  0.005271665 120 121 124 127
70 62.080000000 3042.000000000  0.006819001 127 118 119 120
71 62.080000000 3042.000000000  0.006819001 138 129 130 141
72 62.080000000 3042.000000000  0.005271665 141 140 137 138
73 62.080000000 3042.000000000  0.003265002 139 140 141 142
74 62.080000000 3042.000000000  0.004026144 139 142 131 132
75 62.080000000 3042.000000000  0.004618176 141 130 131 142
76 62.080000000 3042.000000000  0.003265002 143 140 139 144
77 62.080000000 3042.000000000  0.004618176 143 144 133 134
78 62.080000000 3042.000000000  0.004026144 139 132 133 144
79 62.080000000 3042.000000000  0.005271665 136 137 140 143
80 62.080000000 3042.000000000  0.006819001 143 134 135 136
81 62.080000000 3042.000000000  0.006819001 154 145 146 157
82 62.080000000 3042.000000000  0.005271665 157 156 153 154
83 62.080000000 3042.000000000  0.003265002 155 156 157 158
84 62.080000000 3042.000000000  0.004026144 155 158 147 148
85 62.080000000 3042.000000000  0.004618176 157 146 147 158
86 62.080000000 3042.000000000  0.003265002 159 156 155 160
87 62.080000000 3042.000000000  0.004618176 159 160 149 150
88 62.080000000 3042.000000000  0.004026144 155 148 149 160
89 62.080000000 3042.000000000  0.005271665 152 153 156 159
90 62.080000000 3042.000000000  0.006819001 159 150 151 152
91 62.080000000 3042.000000000  0.006819001 170 161 162 173
92 62.080000000 3042.000000000  0.005271665 173 172 169 170
93 62.080000000 3042.000000000  0.003265002 171 172 173 174
94 62.080000000 3042.000000000  0.004026144 171 174 163 164
95 62.080000000 3042.000000000  0.004618176 173 162 163 174
96 62.080000000 3042.000000000  0.003265002 175 172 171 176
97 62.080000000 3042.000000000  0.004618176 175 176 165 166
98 62.080000000 3042.000000000  0.004026144 171 164 165 176
99 62.080000000 3042.000000000  0.005271665 168 169 172 175
100 62.080000000 3042.000000000  0.006819001 175 166 167 168
101 62.080000000 3042.000000000  0.006819001 186 177 178 189
102 62.080000000 3042.000000000  0.005271665 189 188 185 186
103 62.080000000 3042.000000000  0.003265002 187 188 189 190
104 62.080000000 3042.000000000  0.004026144 187 190 179 180
105 62.080000000 3042.000000000  0.004618176 189 178 179 190
106 62.080000000 3042.000000000  0.003265002 191 188 187 192
107 62.080000000 3042.000000000  0.004618176 191 192 181 182
108 62.080000000 3042.000000000  0.004026144 187 180 181 192
109 62.080000000 3042.000000000  0.005271665 184 185 188 191
110 62.080000000 3042.000000000  0.006819001 191 182 183 184
111 62.080000000 3042.000000000  0.006819001 202 193 194 205
112 62.080000000 3042.000000000  0.005271665 205 204 201 202
113 62.080000000 3042.000000000  0.003265002 203 204 205 206
114 62.080000000 3042.000000000  0.004026144 203 206 195 196
115 62.080000000 3042.000000000  0.004618176 205 194 195 206
116 62.080000000 3042.000000000  0.003265002 207 204 203 208
117 62.080000000 3042.000000000  0.004618176 207 208 197 198
118 62.080000000 3042.000000000  0.004026144 203 196 197 208
119 62.080000000 3042.000000000  0.005271665 200 201 204 207
120 62.080000000 3042.000000000  0.006819001 207 198 199 200
121 62.080000000 3042.000000000  0.006819001 218 209 210 221
122 62.080000000 3042.000000000  0.005271665 221 220 217 218
123 62.080000000 3042.000000000  0.003265002 219 220 221 222
124 62.080000000 3042.000000000  0.004026144 219 222 211 212
125 62.080000000 3042.000000000  0.004618176 221 210 211 222
126 62.080000000 3042.000000000  0.003265002 223 220 219 224
127 62.080000000 3042.000000000  0.004618176 223 224 213 214
128 62.080000000 3042.000000000  0.004026144 219 212 213 224
129 62.080000000 3042.000000000  0.005271665 216 217 220 223
130 62.080000000 3042.000000000  0.006819001 223 214 215 216
131 62.080000000 3042.000000000  0.006819001 234 225 226 237
132 62.080000000 3042.000000000  0.005271665 237 236 233 234
133 62.080000000 3042.000000000  0.003265002 235 236 237 238
134 62.080000000 3042.000000000  0.004026144 235 238 227 228
135 62.080000000 3042.000000000  0.004618176 237 226 227 238
136 62.080000000 3042.000000000  0.003265002 239 236 235 240
137 62.080000000 3042.000000000  0.004618176 239 240 229 230
138 62.080000000 3042.000000000  0.004026144 235 228 229 240
139 62.080000000 3042.000000000  0.005271665 232 233 236 239
140 62.080000000 3042.000000000  0.006819001 239 230 231 232
141 62.080000000 3042.000000000  0.006819001 250 241 242 253
142 62.080000000 3042.000000000  0.005271665 253 252 249 250
143 62.080000000 3042.000000000  0.003265002 251 252 253 254
144 62.080000000 3042.000000000  0.004026144 251 254 243 244
145 62.080000000 3042.000000000  0.004618176 253 242 243 254
146 62.080000000 3042.000000000  0.003265002 255 252 251 256
147 62.080000000 3042.000000000  0.004618176 255 256 245 246
148 62.080000000 3042.000000000  0.004026144 251 244 245 256
149 62.080000000 3042.000000000  0.005271665 248 249 252 255
150 62.080000000 3042.000000000  0.006819001 255 246 247 248
151 62.080000000 3042.000000000  0.006819001 266 257 258 269
152 62.080000000 3042.000000000  0.005271665 269 268 265 266
153 62.080000000 3042.000000000  0.003265002 267 268 269 270
154 62.080000000 3042.000000000  0.004026144 267 270 259 260
155 62.080000000 3042.000000000  0.004618176 269 258 259 270
156 62.080000000 3042.000000000  0.003265002 271 268 267 272
157 62.080000000 3042.000000000  0.004618176 271 272 261 262
158 62.080000000 3042.000000000  0.004026144 267 260 261 272
159 62.080000000 3042.000000000  0.005271665 264 265 268 271
160 62.080000000 3042.000000000  0.006819001 271 262 263 264
161 62.080000000 3042.000000000  0.006819001 282 273 274 285
162 62.080000000 3042.000000000  0.005271665 285 284 281 282
163 62.080000000 3042.000000000  0.003265002 283 284 285 286
164 62.080000000 3042.000000000  0.004026144 283 286 275 276
165 62.080000000 3042.000000000  0.004618176 285 274 275 286
166 62.080000000 3042.000000000  0.003265002 287 284 283 288
167 62.080000000 3042.000000000  0.004618176 287 288 277 278
168 62.080000000 3042.000000000  0.004026144 283 276 277 288
169 62.080000000 3042.000000000  0.005271665 280 281 284 287
170 62.080000000 3042.000000000  0.006819001 287 278 279 280
171 62.080000000 3042.000000000  0.006819001 298 289 290 301
172 62.080000000 3042.000000000  0.005271665 301 300 297 298
173 62.080000000 3042.000000000  0.003265002 299 300 301 302
174 62.080000000 3042.000000000  0.004026144 299 302 291 292
175 62.080000000 3042.000000000  0.004618176 301 290 291 302
176 62.080000000 3042.000000000  0.003265002 303 300 299 304
177 62.080000000 3042.000000000  0.004618176 303 304 293 294
178 62.080000000 3042.000000000  0.004026144 299 292 293 304
179 62.080000000 3042.000000000  0.005271665 296 297 300 303
180 62.080000000 3042.000000000  0.006819001 303 294 295 296
181 62.080000000 3042.000000000  0.006819001 314 305 306 317
182 62.080000000 3042.000000000  0.005271665 317 316 313 314
183 62.080000000 3042.000000000  0.003265002 315 316 317 318
184 62.080000000 3042.000000000  0.004026144 315 318 307 308
185 62.080000000 3042.000000000  0.004618176 317 306 307 318
186 62.080000000 3042.000000000  0.003265002 319 316 315 320
187 62.080000000 3042.000000000  0.004618176 319 320 309 310
188 62.080000000 3042.000000000  0.004026144 315 308 309 320
189 62.080000000 3042.000000000  0.005271665 312 313 316 319
190 62.080000000 3042.000000000  0.006819001 319 310 311 312
191 62.080000000 3042.000000000  0.006819001 330 321 322 333
192 62.080000000 3042.000000000  0.005271665 333 332 329 330
193 62.080000000 3042.000000000  0.003265002 331 332 333 334
194 62.080000000 3042.000000000  0.004026144 331 334 323 324
195 62.080000000 3042.000000000  0.004618176 333 322 323 334
196 62.080000000 3042.000000000  0.003265002 335 332 331 336
197 62.080000000 3042.000000000  0.004618176 335 336 325 326
198 62.080000000 3042.000000000  0.004026144 331 324 325 336
199 62.080000000 3042.000000000  0.005271665 328 329 332 335
200 62.080000000 3042.000000000  0.006819001 335 326 327 328
201 62.080000000 3042.000000000  0.006819001 26 355 348 17
202 62.080000000 3042.000000000  0.005271665 355 26 25 354
203 62.080000000 3042.000000000  0.003265002 353 356 355 354
204 62.080000000 3042.000000000  0.004026144 353 350 349 356
205 62.080000000 3042.000000000  0.004618176 355 356 349 348
206 62.080000000 3042.000000000  0.003265002 357 358 353 354
207 62.080000000 3042.000000000  0.004618176 357 352 351 358
208 62.080000000 3042.000000000  0.004026144 353 358 351 350
209 62.080000000 3042.000000000  0.005271665 24 357 354 25
210 62.080000000 3042.000000000  0.006819001 357 24 23 352
211 62.080000000 3042.000000000  0.006819001 42 366 359 33
212 62.080000000 3042.000000000  0.005271665 366 42 41 365
213 62.080000000 3042.000000000  0.003265002 364 367 366 365
214 62.080000000 3042.000000000  0.004026144 364 361 360 367
215 62.080000000 3042.000000000  0.004618176 366 367 360 359
216 62.080000000 3042.000000000  0.003265002 368 369 364 365
217 62.080000000 3042.000000000  0.004618176 368 363 362 369
218 62.080000000 3042.000000000  0.004026144 364 369 362 361
219 62.080000000 3042.000000000  0.005271665 40 368 365 41
220 62.080000000 3042.000000000  0.006819001 368 40 39 363
221 62.080000000 3042.000000000  0.006819001 58 377 370 49
222 62.080000000 3042.000000000  0.005271665 377 58 57 376
223 62.080000000 3042.000000000  0.003265002 375 378 377 376
224 62.080000000 3042.000000000  0.004026144 375 372 371 378
225 62.080000000 3042.000000000  0.004618176 377 378 371 370
226 62.080000000 3042.000000000  0.003265002 379 380 375 376
227 62.080000000 3042.000000000  0.004618176 379 374 373 380
228 62.080000000 3042.000000000  0.004026144 375 380 373 372
229 62.080000000 3042.000000000  0.005271665 56 379 376 57
230 62.080000000 3042.000000000  0.006819001 379 56 55 374
231 62.080000000 3042.000000000  0.006819001 74 388 381 65
232 62.080000000 3042.000000000  0.005271665 388 74 73 387
233 62.080000000 3042.000000000  0.003265002 386 389 388 387
234 62.080000000 3042.000000000  0.004026144 386 383 382 389
235 62.080000000 3042.000000000  0.004618176 388 389 382 381
236 62.080000000 3042.000000000  0.003265002 390 391 386 387
237 62.080000000 3042.000000000  0.004618176 390 385 384 391
238 62.080000000 3042.000000000  0.004026144 386 391 384 383
239 62.080000000 3042.000000000  0.005271665 72 390 387 73
240 62.080000000 3042.000000000  0.006819001 390 72 71 385
241 62.080000000 3042.000000000  0.006819001 90 399 392 81
242 62.080000000 3042.000000000  0.005271665 399 90 89 398
243 62.080000000 3042.000000000  0.003265002 397 400 399 398
244 62.080000000 3042.000000000  0.004026144 397 394 393 400
245 62.080000000 3042.000000000  0.004618176 399 400 393 392
246 62.080000000 3042.000000000  0.003265002 401 402 397 398
247 62.080000000 3042.000000000  0.004618176 401 396 395 402
248 62.080000000 3042.000000000  0.004026144 397 402 395 394
249 62.080000000 3042.000000000  0.005271665 88 401 398 89
250 62.080000000 3042.000000000  0.006819001 401 88 87 396
251 62.080000000 3042.000000000  0.006819001 106 410 403 97
252 62.080000000 3042.000000000  0.005271665 410 106 105 409
253 62.080000000 3042.000000000  0.003265002 408 411 410 409
254 62.080000000 3042.000000000  0.004026144 408 405 404 411
255 62.080000000 3042.000000000  0.004618176 410 411 404 403
256 62.080000000 3042.000000000  0.003265002 412 413 408 409
257 62.080000000 3042.000000000  0.004618176 412 407 406 413
258 62.080000000 3042.000000000  0.004026144 408 413 406 405
259 62.080000000 3042.000000000  0.005271665 104 412 409 105
260 62.080000000 3042.000000000  0.006819001 412 104 103 407
261 62.080000000 3042.000000000  0.006819001 122 421 414 113
262 62.080000000 3042.000000000  0.005271665 421 122 121 420
263 62.080000000 3042.000000000  0.003265002 419 422 421 420
264 62.080000000 3042.000000000  0.004026144 419 416 415 422
265 62.080000000 3042.000000000  0.004618176 421 422 415 414
266 62.080000000 3042.000000000  0.003265002 423 424 419 420
267 62.080000000 3042.000000000  0.004618176 423 418 417 424
268 62.080000000 3042.000000000  0.004026144 419 424 417 416
269 62.080000000 3042.000000000  0.005271665 120 423 420 121
270 62.080000000 3042.000000000  0.006819001 423 120 119 418
271 62.080000000 3042.000000000  0.006819001 138 432 425 129
272 62.080000000 3042.000000000  0.005271665 432 138 137 431
273 62.080000000 3042.000000000  0.003265002 430 433 432 431
274 62.080000000 3042.000000000  0.004026144 430 427 426 433
275 62.080000000 3042.000000000  0.004618176 432 433 426 425
276 62.080000000 3042.000000000  0.003265002 434 435 430 431
277 62.080000000 3042.000000000  0.004618176 434 429 428 435
278 62.080000000 3042.000000000  0.004026144 430 435 428 427
279 62.080000000 3042.000000000  0.005271665 136 434 431 137
280 62.080000000 3042.000000000  0.006819001 434 136 135 429
281 62.080000000 3042.000000000  0.006819001 154 443 436 145
282 62.080000000 3042.000000000  0.005271665 443 154 153 442
283 62.080000000 3042.000000000  0.003265002 441 444 443 442
284 62.080000000 3042.000000000  0.004026144 441 438 437 444
285 62.080000000 3042.000000000  0.004618176 443 444 437 436
286 62.080000000 3042.000000000  0.003265002 445 446 441 442
287 62.080000000 3042.000000000  0.004618176 445 440 439 446
288 62.080000000 3042.000000000  0.004026144 441 446 439 438
289 62.080000000 3042.000000000  0.005271665 152 445 442 153
290 62.080000000 3042.000000000  0.006819001 445 152 151 440
291 62.080000000 3042.000000000  0.006819001 170 454 447 161
292 62.080000000 3042.000000000  0.005271665 454 170 169 453
293 62.080000000 3042.000000000  0.003265002 452 455 454 453
294 62.080000000 3042.000000000  0.004026144 452 449 448 455
295 62.080000000 3042.000000000  0.004618176 454 455 448 447
296 62.080000000 3042.000000000  0.003265002 456 457 452 453
297 62.080000000 3042.000000000  0.004618176 456 451 450 457
298 62.080000000 3042.000000000  0.004026144 452 457 450 449
299 62.080000000 3042.000000000  0.005271665 168 456 453 169
300 62.080000000 3042.000000000  0.006819001 456 168 167 451
301 62.080000000 3042.000000000  0.006819001 186 465 458 177
302 62.080000000 3042.000000000  0.005271665 465 186 185 464
303 62.080000000 3042.000000000  0.003265002 463 466 465 464
304 62.080000000 3042.000000000  0.004026144 463 460 459 466
305 62.080000000 3042.000000000  0.004618176 465 466 459 458
306 62.080000000 3042.000000000  0.003265002 467 468 463 464
307 62.080000000 3042.000000000  0.004618176 467 462 461 468
308 62.080000000 3042.000000000  0.004026144 463 468 461 460
309 62.080000000 3042.000000000  0.005271665 184 467 464 185
310 62.080000000 3042.000000000  0.006819001 467 184 183 462
311 62.080000000 3042.000000000  0.006819001 202 476 469 193
312 62.080000000 3042.000000000  0.005271665 476 202 201 475
313 62.080000000 3042.000000000  0.003265002 474 477 476 475
314 62.080000000 3042.000000000  0.004026144 474 471 470 477
315 62.080000000 3042.000000000  0.004618176 476 477 470 469
316 62.080000000 3042.000000000  0.003265002 478 479 474 475
317 62.080000000 3042.000000000  0.004618176 478 473 472 479
318 62.080000000 3042.000000000  0.004026144 474 479 472 471
319 62.080000000 3042.000000000  0.005271665 200 478 475 201
320 62.080000000 3042.000000000  0.006819001 478 200 199 473
321 62.080000000 3042.000000000  0.006819001 218 487 480 209
322 62.080000000 3042.000000000  0.005271665 487 218 217 486
323 62.080000000 3042.000000000  0.003265002 485 488 487 486
324 62.080000000 3042.000000000  0.004026144 485 482 481 488
325 62.080000000 3042.000000000  0.004618176 487 488 481 480
326 62.080000000 3042.000000000  0.003265002 489 490 485 486
327 62.080000000 3042.000000000  0.004618176 489 484 483 490
328 62.080000000 3042.000000000  0.004026144 485 490 483 482
329 62.080000000 3042.000000000  0.005271665 216 489 486 217
330 62.080000000 3042.000000000  0.006819001 489 216 215 484
331 62.080000000 3042.000000000  0.006819001 234 498 491 225
332 62.080000000 3042.000000000  0.005271665 498 234 233 497
333 62.080000000 3042.000000000  0.003265002 496 499 498 497
334 62.080000000 3042.000000000  0.004026144 496 493 492 499
335 62.080000000 3042.000000000  0.004618176 498 499 492 491
336 62.080000000 3042.000000000  0.003265002 500 501 496 497
337 62.080000000 3042.000000000  0.004618176 500 495 494 501
338 62.080000000 3042.000000000  0.004026144 496 501 494 493
339 62.080000000 3042.000000000  0.005271665 232 500 497 233
340 62.080000000 3042.000000000  0.006819001 500 232 231 495
341 62.080000000 3042.000000000  0.006819001 250 509 502 241
342 62.080000000 3042.000000000  0.005271665 509 250 249 508
343 62.080000000 3042.000000000  0.003265002 507 510 509 508
344 62.080000000 3042.000000000  0.004026144 507 504 503 510
345 62.080000000 3042.000000000  0.004618176 509 510 503 502
346 62.080000000 3042.000000000  0.003265002 511 512 507 508
347 62.080000000 3042.000000000  0.004618176 511 506 505 512
348 62.080000000 3042.000000000  0.004026144 507 512 505 504
349 62.080000000 3042.000000000  0.005271665 248 511 508 249
350 62.080000000 3042.000000000  0.006819001 511 248 247 506
351 62.080000000 3042.000000000  0.006819001 266 520 513 257
352 62.080000000 3042.000000000  0.005271665 520 266 265 519
353 62.080000000 3042.000000000  0.003265002 518 521 520 519
354 62.080000000 3042.000000000  0.004026144 518 515 514 521
355 62.080000000 3042.000000000  0.004618176 520 521 514 513
356 62.080000000 3042.000000000  0.003265002 522 523 518 519
357 62.080000000 3042.000000000  0.004618176 522 517 516 523
358 62.080000000 3042.000000000  0.004026144 518 523 516 515
359 62.080000000 3042.000000000  0.005271665 264 522 519 265
360 62.080000000 3042.000000000  0.006819001 522 264 263 517
361 62.080000000 3042.000000000  0.006819001 282 531 524 273
362 62.080000000 3042.000000000  0.005271665 531 282 281 530
363 62.080000000 3042.000000000  0.003265002 529 532 531 530
364 62.080000000 3042.000000000  0.004026144 529 526 525 532
365 62.080000000 3042.000000000  0.004618176 531 532 525 524
366 62.080000000 3042.000000000  0.003265002 533 534 529 530
367 62.080000000 3042.000000000  0.004618176 533 528 527 534
368 62.080000000 3042.000000000  0.004026144 529 534 527 526
369 62.080000000 3042.000000000  0.005271665 280 533 530 281
370 62.080000000 3042.000000000  0.006819001 533 280 279 528
371 62.080000000 3042.000000000  0.006819001 298 542 535 289
372 62.080000000 3042.000000000  0.005271665 542 298 297 541
373 62.080000000 3042.000000000  0.003265002 540 543 542 541
374 62.080000000 3042.000000000  0.004026144 540 537 536 543
375 62.080000000 3042.000000000  0.004618176 542 543 536 535
376 62.080000000 3042.000000000  0.003265002 544 545 540 541
377 62.080000000 3042.000000000  0.004618176 544 539 538 545
378 62.080000000 3042.000000000  0.004026144 540 545 538 537
379 62.080000000 3042.000000000  0.005271665 296 544 541 297
380 62.080000000 3042.000000000  0.006819001 544 296 295 539
381 62.080000000 3042.000000000  0.006819001 314 553 546 305
382 62.080000000 3042.000000000  0.005271665 553 314 313 552
383 62.080000000 3042.000000000  0.003265002 551 554 553 552
384 62.080000000 3042.000000000  0.004026144 551 548 547 554
385 62.080000000 3042.000000000  0.004618176 553 554 547 546
386 62.080000000 3042.000000000  0.003265002 555 556 551 552
387 62.080000000 3042.000000000  0.004618176 555 550 549 556
388 62.080000000 3042.000000000  0.004026144 551 556 549 548
389 62.080000000 3042.000000000  0.005271665 312 555 552 313
390 62.080000000 3042.000000000  0.006819001 555 312 311 550
391 62.080000000 3042.000000000  0.006819001 330 564 557 321
392 62.080000000 3042.000000000  0.005271665 564 330 329 563
393 62.080000000 3042.000000000  0.003265002 562 565 564 563
394 62.080000000 3042.000000000  0.004026144 562 559 558 565
395 62.080000000 3042.000000000  0.004618176 564 565 558 557
396 62.080000000 3042.000000000  0.003265002 566 567 562 563
397 62.080000000 3042.000000000  0.004618176 566 561 560 567
398 62.080000000 3042.000000000  0.004026144 562 567 560 559
399 62.080000000 3042.000000000  0.005271665 328 566 563 329
400 62.080000000 3042.000000000  0.006819001 566 328 327 561

Atoms

1 1 2 3.6000000000e+00    4.0000000000    1.0000000000
2 1 1 3.6535900000e+00    3.8000000000    1.0000000000
3 1 1 3.8000000000e+00    3.6535900000    1.0000000000
4 1 1 4.0000000000e+00    3.6000000000    1.0000000000
5 1 1 4.2000000000e+00    3.6535900000    1.0000000000
6 1 1 4.3464100000e+00    3.8000000000    1.0000000000
7 1 2 4.4000000000e+00    4.0000000000    1.0000000000
8 1 3 4.2000000000e+00    4.0000000000    1.0000000000
9 1 3 4.0000000000e+00    4.0000000000    1.0000000000
10 1 3 3.8000000000e+00    4.0000000000    1.0000000000
11 1 2 4.0000000000e+00    3.7393200000    1.0000000000
12 1 2 4.0000000000e+00    3.8614340000    1.0000000000
13 1 3 3.8327970000e+00    3.8522600000    1.0000000000
14 1 1 3.8775990000e+00    3.7488400000    1.0000000000
15 1 3 4.1672030000e+00    3.8522600000    1.0000000000
16 1 1 4.1224010000e+00    3.7488400000    1.0000000000
17 1 4 3.6000000000e+00    4.0000000000    1.2000000000
18 1 4 3.6535900000e+00    3.8000000000    1.2000000000
19 1 2 3.8000000000e+00    3.6535900000    1.2000000000
20 1 2 4.0000000000e+00    3.6000000000    1.2000000000
21 1 2 4.2000000000e+00    3.6535900000    1.2000000000
22 1 4 4.3464100000e+00    3.8000000000    1.2000000000
23 1 4 4.4000000000e+00    4.0000000000    1.2000000000
24 1 7 4.2000000000e+00    4.0000000000    1.2000000000
25 1 6 4.0000000000e+00    4.0000000000    1.2000000000
26 1 7 3.8000000000e+00    4.0000000000    1.2000000000
27 1 4 4.0000000000e+00    3.7393200000    1.2000000000
28 1 5 4.0000000000e+00    3.8614340000    1.2000000000
29 1 5 3.8327970000e+00    3.8522600000    1.2000000000
30 1 3 3.8775990000e+00    3.7488400000    1.2000000000
31 1 5 4.1672030000e+00    3.8522600000    1.2000000000
32 1 3 4.1224010000e+00    3.7488400000    1.2000000000
33 1 4 3.6000000000e+00    4.0000000000    1.4000000000
34 1 4 3.6535900000e+00    3.8000000000    1.4000000000
35 1 2 3.8000000000e+00    3.6535900000    1.4000000000
36 1 2 4.0000000000e+00    3.6000000000    1.4000000000
37 1 2 4.2000000000e+00    3.6535900000    1.4000000000
38 1 4 4.3464100000e+00    3.8000000000    1.4000000000
39 1 4 4.4000000000e+00    4.0000000000    1.4000000000
40 1 7 4.2000000000e+00    4.0000000000    1.4000000000
41 1 6 4.0000000000e+00    4.0000000000    1.4000000000
42 1 7 3.8000000000e+00    4.0000000000    1.4000000000
43 1 4 4.0000000000e+00    3.7393200000    1.4000000000
44 1 5 4.0000000000e+00    3.8614340000    1.4000000000
45 1 5 3.8327970000e+00    3.8522600000    1.4000000000
46 1 3 3.8775990000e+00    3.7488400000    1.4000000000
47 1 5 4.1672030000e+00    3.8522600000    1.4000000000
48 1 3 4.1224010000e+00    3.7488400000    1.4000000000
49 1 4 3.6000000000e+00    4.0000000000    1.6000000000
50 1 4 3.6535900000e+00    3.8000000000    1.6000000000
51 1 2 3.8000000000e+00    3.6535900000    1.6000000000
52 1 2 4.0000000000e+00    3.6000000000    1.6000000000
53 1 2 4.2000000000e+00    3.6535900000    1.6000000000
54 1 4 4.3464100000e+00    3.8000000000    1.6000000000
55 1 4 4.4000000000e+00    4.0000000000    1.6000000000
56 1 7 4.2000000000e+00    4.0000000000    1.6000000000
57 1 6 4.0000000000e+00    4.0000000000    1.6000000000
58 1 7 3.8000000000e+00    4.0000000000    1.6000000000
59 1 4 4.0000000000e+00    3.7393200000    1.6000000000
60 1 5 4.0000000000e+00    3.8614340000    1.6000000000