LAMMPS Description

3187	atoms
28962	bonds
0	angles
0	dihedrals
1856	impropers

9	atom types
158	bond types
0	angle types
0	dihedral types
1856	improper types

0.00000000	60.00000000	xlo xhi
0.00000000	8.00000000	ylo yhi
0.00000000	40.00000000	zlo zhi

Masses

1 0.01092372
2 0.02421872
3 0.03728097
4 0.05036507
5 0.06450530
6 0.07896059
7 0.09251095
8 0.10617127
9 0.11948263

Bond Coeffs

1 -5.130463689  0.000000000
2 -3.926995352  0.000000000
3 -2.644265303  0.000000000
4 -2.393896118  0.000000000
5 -1.723032533  0.000000000
6 -1.710154563  0.000000000
7 -1.595930745  0.000000000
8 -1.308998451  0.000000000
9 -1.196948059  0.000000000
10 -1.171868418  0.000000000
11 -1.129058371  0.000000000
12 -1.015372729  0.000000000
13 -0.863098103  0.000000000
14 -0.838126816  0.000000000
15 -0.821395979  0.000000000
16 -0.803924027  0.000000000
17 -0.748061680  0.000000000
18 -0.734921507  0.000000000
19 -0.650012775  0.000000000
20 -0.640085000  0.000000000
21 -0.629504584  0.000000000
22 -0.615132890  0.000000000
23 -0.604779296  0.000000000
24 -0.593927308  0.000000000
25 -0.579672876  0.000000000
26 -0.568509674  0.000000000
27 -0.549892368  0.000000000
28 -0.533612851  0.000000000
29 -0.522570952  0.000000000
30 -0.507686365  0.000000000
31 -0.444649248  0.000000000
32 -0.431549052  0.000000000
33 -0.413405039  0.000000000
34 -0.401962014  0.000000000
35 -0.384163679  0.000000000
36 -0.374030840  0.000000000
37 -0.364945944  0.000000000
38 -0.324463515  0.000000000
39 -0.314752292  0.000000000
40 -0.296963654  0.000000000
41 -0.287761147  0.000000000
42 -0.274946184  0.000000000
43 -0.261285476  0.000000000
44 -0.242425136  0.000000000
45 -0.230171710  0.000000000
46 -0.221101839  0.000000000
47 -0.210495493  0.000000000
48 -0.192081840  0.000000000
49 -0.136899330  0.000000000
50 -0.121212568  0.000000000
51 -0.110390846  0.000000000
52 -0.093012212  0.000000000
53 -0.068255598  0.000000000
54 -0.043490126  0.000000000
55 -0.034127799  0.000000000
56 -0.021745063  0.000000000
57 -0.011983510  0.000000000
58 -0.001135624  0.000000000
59  0.008933579  0.000000000
60  0.017867159  0.000000000
61  0.084276239  0.000000000
62  0.126360500  0.000000000
63  0.154213467  0.000000000
64  0.168552478  0.000000000
65  0.182143026  0.000000000
66  0.195198117  0.000000000
67  0.204647489  0.000000000
68  0.214045337  0.000000000
69  0.231234123  0.000000000
70  0.244735025  0.000000000
71  0.255651018  0.000000000
72  0.268738374  0.000000000
73  0.277658723  0.000000000
74  0.295245646  0.000000000
75  0.306221676  0.000000000
76  0.327880197  0.000000000
77  0.338511161  0.000000000
78  0.361196295  0.000000000
79  0.374242670  0.000000000
80  0.384631582  0.000000000
81  0.395738134  0.000000000
82  0.404598697  0.000000000
83  0.413427553  0.000000000
84  0.424053331  0.000000000
85  0.438097994  0.000000000
86  0.456030158  0.000000000
87  0.471395840  0.000000000
88  0.482106128  0.000000000
89  0.501787800  0.000000000
90  0.511302037  0.000000000
91  0.520077192  0.000000000
92  0.529629015  0.000000000
93  0.540543799  0.000000000
94  0.549464846  0.000000000
95  0.558797612  0.000000000
96  0.587479255  0.000000000
97  0.599262237  0.000000000
98  0.617501163  0.000000000
99  0.630446537  0.000000000
100  0.639626713  0.000000000
101  0.655760395  0.000000000
102  0.665089663  0.000000000
103  0.676276230  0.000000000
104  0.687637921  0.000000000
105  0.710366267  0.000000000
106  0.724045302  0.000000000
107  0.733061621  0.000000000
108  0.753031253  0.000000000
109  0.767264677  0.000000000
110  0.778505841  0.000000000
111  0.791868828  0.000000000
112  0.812183756  0.000000000
113  0.821684067  0.000000000
114  0.832969566  0.000000000
115  0.846073995  0.000000000
116  0.862460578  0.000000000
117  0.876195988  0.000000000
118  0.885064256  0.000000000
119  0.895314748  0.000000000
120  0.910206305  0.000000000
121  0.922870034  0.000000000
122  0.936060397  0.000000000
123  0.946858809  0.000000000
124  0.957054827  0.000000000
125  0.986467660  0.000000000
126  1.000894782  0.000000000
127  1.011098489  0.000000000
128  1.021809238  0.000000000
129  1.034666667  0.000000000
130  1.057921827  0.000000000
131  1.077609093  0.000000000
132  1.099442743  0.000000000
133  1.124158661  0.000000000
134  1.153894745  0.000000000
135  1.219079140  0.000000000
136  1.242538637  0.000000000
137  1.262442193  0.000000000
138  1.277732498  0.000000000
139  1.313805391  0.000000000
140  1.332870055  0.000000000
141  1.352552460  0.000000000
142  1.454828700  0.000000000
143  1.505363401  0.000000000
144  1.534529354  0.000000000
145  1.561910610  0.000000000
146  2.007151201  0.000000000
147  2.059118622  0.000000000
148  2.307789490  0.000000000
149  2.375606485  0.000000000
150  2.498908699  0.000000000
151  2.909657401  0.000000000
152  3.010726802  0.000000000
153  3.088677933  0.000000000
154  4.118237244  0.000000000
155  4.364486101  0.000000000
156  5.819314802  0.000000000
157  6.177355867  0.000000000
158  8.728972203  0.000000000

Improper Coeffs

1 62.080000000 3042.000000000  0.033294128 1 6 5 2
2 62.080000000 3042.000000000  0.033294128 1 3 7 6
3 62.080000000 3042.000000000  0.023921503 4 2 5 9
4 62.080000000 3042.000000000  0.023921503 8 10 7 3
5 62.080000000 3042.000000000  0.033294128 5 6 11 9
6 62.080000000 3042.000000000  0.033294128 7 10 11 6
7 62.080000000 3042.000000000  0.033294128 12 17 16 13
8 62.080000000 3042.000000000  0.033294128 12 14 18 17
9 62.080000000 3042.000000000  0.023921503 15 13 16 20
10 62.080000000 3042.000000000  0.023921503 19 21 18 14
11 62.080000000 3042.000000000  0.033294128 16 17 22 20
12 62.080000000 3042.000000000  0.033294128 18 21 22 17
13 62.080000000 3042.000000000  0.033294128 23 28 27 24
14 62.080000000 3042.000000000  0.033294128 23 25 29 28
15 62.080000000 3042.000000000  0.023921376 26 24 27 31
16 62.080000000 3042.000000000  0.023921376 30 32 29 25
17 62.080000000 3042.000000000  0.033294015 27 28 33 31
18 62.080000000 3042.000000000  0.033294015 29 32 33 28
19 62.080000000 3042.000000000  0.033294015 34 39 38 35
20 62.080000000 3042.000000000  0.033294015 34 36 40 39
21 62.080000000 3042.000000000  0.023921250 37 35 38 42
22 62.080000000 3042.000000000  0.023921250 41 43 40 36
23 62.080000000 3042.000000000  0.033294015 38 39 44 42
24 62.080000000 3042.000000000  0.033294015 40 43 44 39
25 62.080000000 3042.000000000  0.033294015 45 50 49 46
26 62.080000000 3042.000000000  0.033294015 45 47 51 50
27 62.080000000 3042.000000000  0.023921250 48 46 49 53
28 62.080000000 3042.000000000  0.023921250 52 54 51 47
29 62.080000000 3042.000000000  0.033294015 49 50 55 53
30 62.080000000 3042.000000000  0.033294015 51 54 55 50
31 62.080000000 3042.000000000  0.033294015 56 61 60 57
32 62.080000000 3042.000000000  0.033294015 56 58 62 61
33 62.080000000 3042.000000000  0.023921250 59 57 60 64
34 62.080000000 3042.000000000  0.023921250 63 65 62 58
35 62.080000000 3042.000000000  0.033294015 60 61 66 64
36 62.080000000 3042.000000000  0.033294015 62 65 66 61
37 62.080000000 3042.000000000  0.033294015 67 72 71 68
38 62.080000000 3042.000000000  0.033294015 67 69 73 72
39 62.080000000 3042.000000000  0.023921250 70 68 71 75
40 62.080000000 3042.000000000  0.023921250 74 76 73 69
41 62.080000000 3042.000000000  0.033294015 71 72 77 75
42 62.080000000 3042.000000000  0.033294015 73 76 77 72
43 62.080000000 3042.000000000  0.033294015 78 83 82 79
44 62.080000000 3042.000000000  0.033294015 78 80 84 83
45 62.080000000 3042.000000000  0.023921250 81 79 82 86
46 62.080000000 3042.000000000  0.023921250 85 87 84 80
47 62.080000000 3042.000000000  0.033294015 82 83 88 86
48 62.080000000 3042.000000000  0.033294015 84 87 88 83
49 62.080000000 3042.000000000  0.033294128 89 94 93 90
50 62.080000000 3042.000000000  0.033294128 89 91 95 94
51 62.080000000 3042.000000000  0.023921503 92 90 93 97
52 62.080000000 3042.000000000  0.023921503 96 98 95 91
53 62.080000000 3042.000000000  0.033294128 93 94 99 97
54 62.080000000 3042.000000000  0.033294128 95 98 99 94
55 62.080000000 3042.000000000  0.033294128 100 105 104 101
56 62.080000000 3042.000000000  0.033294128 100 102 106 105
57 62.080000000 3042.000000000  0.023921503 103 101 104 108
58 62.080000000 3042.000000000  0.023921503 107 109 106 102
59 62.080000000 3042.000000000  0.033294128 104 105 110 108
60 62.080000000 3042.000000000  0.033294128 106 109 110 105
61 62.080000000 3042.000000000  0.033294128 111 116 115 112
62 62.080000000 3042.000000000  0.033294128 111 113 117 116
63 62.080000000 3042.000000000  0.023921376 114 112 115 119
64 62.080000000 3042.000000000  0.023921376 118 120 117 113
65 62.080000000 3042.000000000  0.033294015 115 116 121 119
66 62.080000000 3042.000000000  0.033294015 117 120 121 116
67 62.080000000 3042.000000000  0.033294015 122 127 126 123
68 62.080000000 3042.000000000  0.033294015 122 124 128 127
69 62.080000000 3042.000000000  0.023921250 125 123 126 130
70 62.080000000 3042.000000000  0.023921250 129 131 128 124
71 62.080000000 3042.000000000  0.033294015 126 127 132 130
72 62.080000000 3042.000000000  0.033294015 128 131 132 127
73 62.080000000 3042.000000000  0.033294015 133 138 137 134
74 62.080000000 3042.000000000  0.033294015 133 135 139 138
75 62.080000000 3042.000000000  0.023921250 136 134 137 141
76 62.080000000 3042.000000000  0.023921250 140 142 139 135
77 62.080000000 3042.000000000  0.033294015 137 138 143 141
78 62.080000000 3042.000000000  0.033294015 139 142 143 138
79 62.080000000 3042.000000000  0.033294015 144 149 148 145
80 62.080000000 3042.000000000  0.033294015 144 146 150 149
81 62.080000000 3042.000000000  0.023921250 147 145 148 152
82 62.080000000 3042.000000000  0.023921250 151 153 150 146
83 62.080000000 3042.000000000  0.033294015 148 149 154 152
84 62.080000000 3042.000000000  0.033294015 150 153 154 149
85 62.080000000 3042.000000000  0.033294015 155 160 159 156
86 62.080000000 3042.000000000  0.033294015 155 157 161 160
87 62.080000000 3042.000000000  0.023921250 158 156 159 163
88 62.080000000 3042.000000000  0.023921250 162 164 161 157
89 62.080000000 3042.000000000  0.033294015 159 160 165 163
90 62.080000000 3042.000000000  0.033294015 161 164 165 160
91 62.080000000 3042.000000000  0.033294015 166 171 170 167
92 62.080000000 3042.000000000  0.033294015 166 168 172 171
93 62.080000000 3042.000000000  0.023921250 169 167 170 174
94 62.080000000 3042.000000000  0.023921250 173 175 172 168
95 62.080000000 3042.000000000  0.033294015 170 171 176 174
96 62.080000000 3042.000000000  0.033294015 172 175 176 171
97 62.080000000 3042.000000000  0.033294128 177 182 181 178
98 62.080000000 3042.000000000  0.033294128 177 179 183 182
99 62.080000000 3042.000000000  0.023921503 180 178 181 185
100 62.080000000 3042.000000000  0.023921503 184 186 183 179
101 62.080000000 3042.000000000  0.033294128 181 182 187 185
102 62.080000000 3042.000000000  0.033294128 183 186 187 182
103 62.080000000 3042.000000000  0.033294128 188 193 192 189
104 62.080000000 3042.000000000  0.033294128 188 190 194 193
105 62.080000000 3042.000000000  0.023921503 191 189 192 196
106 62.080000000 3042.000000000  0.023921503 195 197 194 190
107 62.080000000 3042.000000000  0.033294128 192 193 198 196
108 62.080000000 3042.000000000  0.033294128 194 197 198 193
109 62.080000000 3042.000000000  0.033294128 199 204 203 200
110 62.080000000 3042.000000000  0.033294128 199 201 205 204
111 62.080000000 3042.000000000  0.023921376 202 200 203 207
112 62.080000000 3042.000000000  0.023921376 206 208 205 201
113 62.080000000 3042.000000000  0.033294015 203 204 209 207
114 62.080000000 3042.000000000  0.033294015 205 208 209 204
115 62.080000000 3042.000000000  0.033294015 210 215 214 211
116 62.080000000 3042.000000000  0.033294015 210 212 216 215
117 62.080000000 3042.000000000  0.023921250 213 211 214 218
118 62.080000000 3042.000000000  0.023921250 217 219 216 212
119 62.080000000 3042.000000000  0.033294015 214 215 220 218
120 62.080000000 3042.000000000  0.033294015 216 219 220 215
121 62.080000000 3042.000000000  0.033294015 221 226 225 222
122 62.080000000 3042.000000000  0.033294015 221 223 227 226
123 62.080000000 3042.000000000  0.023921250 224 222 225 229
124 62.080000000 3042.000000000  0.023921250 228 230 227 223
125 62.080000000 3042.000000000  0.033294015 225 226 231 229
126 62.080000000 3042.000000000  0.033294015 227 230 231 226
127 62.080000000 3042.000000000  0.033294015 232 237 236 233
128 62.080000000 3042.000000000  0.033294015 232 234 238 237
129 62.080000000 3042.000000000  0.023921250 235 233 236 240
130 62.080000000 3042.000000000  0.023921250 239 241 238 234
131 62.080000000 3042.000000000  0.033294015 236 237 242 240
132 62.080000000 3042.000000000  0.033294015 238 241 242 237
133 62.080000000 3042.000000000  0.033294015 243 248 247 244
134 62.080000000 3042.000000000  0.033294015 243 245 249 248
135 62.080000000 3042.000000000  0.023921250 246 244 247 251
136 62.080000000 3042.000000000  0.023921250 250 252 249 245
137 62.080000000 3042.000000000  0.033294015 247 248 253 251
138 62.080000000 3042.000000000  0.033294015 249 252 253 248
139 62.080000000 3042.000000000  0.033294015 254 259 258 255
140 62.080000000 3042.000000000  0.033294015 254 256 260 259
141 62.080000000 3042.000000000  0.023921250 257 255 258 262
142 62.080000000 3042.000000000  0.023921250 261 263 260 256
143 62.080000000 3042.000000000  0.033294015 258 259 264 262
144 62.080000000 3042.000000000  0.033294015 260 263 264 259
145 62.080000000 3042.000000000  0.033294128 265 270 269 266
146 62.080000000 3042.000000000  0.033294128 265 267 271 270
147 62.080000000 3042.000000000  0.023921503 268 266 269 273
148 62.080000000 3042.000000000  0.023921503 272 274 271 267
149 62.080000000 3042.000000000  0.033294128 269 270 275 273
150 62.080000000 3042.000000000  0.033294128 271 274 275 270
151 62.080000000 3042.000000000  0.033294128 276 281 280 277
152 62.080000000 3042.000000000  0.033294128 276 278 282 281
153 62.080000000 3042.000000000  0.023921503 279 277 280 284
154 62.080000000 3042.000000000  0.023921503 283 285 282 278
155 62.080000000 3042.000000000  0.033294128 280 281 286 284
156 62.080000000 3042.000000000  0.033294128 282 285 286 281
157 62.080000000 3042.000000000  0.033294128 287 292 291 288
158 62.080000000 3042.000000000  0.033294128 287 289 293 292
159 62.080000000 3042.000000000  0.023921376 290 288 291 295
160 62.080000000 3042.000000000  0.023921376 294 296 293 289
161 62.080000000 3042.000000000  0.033294015 291 292 297 295
162 62.080000000 3042.000000000  0.033294015 293 296 297 292
163 62.080000000 3042.000000000  0.033294015 298 303 302 299
164 62.080000000 3042.000000000  0.033294015 298 300 304 303
165 62.080000000 3042.000000000  0.023921250 301 299 302 306
166 62.080000000 3042.000000000  0.023921250 305 307 304 300
167 62.080000000 3042.000000000  0.033294015 302 303 308 306
168 62.080000000 3042.000000000  0.033294015 304 307 308 303
169 62.080000000 3042.000000000  0.033294015 309 314 313 310
170 62.080000000 3042.000000000  0.033294015 309 311 315 314
171 62.080000000 3042.000000000  0.023921250 312 310 313 317
172 62.080000000 3042.000000000  0.023921250 316 318 315 311
173 62.080000000 3042.000000000  0.033294015 313 314 319 317
174 62.080000000 3042.000000000  0.033294015 315 318 319 314
175 62.080000000 3042.000000000  0.033294015 320 325 324 321
176 62.080000000 3042.000000000  0.033294015 320 322 326 325
177 62.080000000 3042.000000000  0.023921250 323 321 324 328
178 62.080000000 3042.000000000  0.023921250 327 329 326 322
179 62.080000000 3042.000000000  0.033294015 324 325 330 328
180 62.080000000 3042.000000000  0.033294015 326 329 330 325
181 62.080000000 3042.000000000  0.033294015 331 336 335 332
182 62.080000000 3042.000000000  0.033294015 331 333 337 336
183 62.080000000 3042.000000000  0.023921250 334 332 335 339
184 62.080000000 3042.000000000  0.023921250 338 340 337 333
185 62.080000000 3042.000000000  0.033294015 335 336 341 339
186 62.080000000 3042.000000000  0.033294015 337 340 341 336
187 62.080000000 3042.000000000  0.033294015 342 347 346 343
188 62.080000000 3042.000000000  0.033294015 342 344 348 347
189 62.080000000 3042.000000000  0.023921250 345 343 346 350
190 62.080000000 3042.000000000  0.023921250 349 351 348 344
191 62.080000000 3042.000000000  0.033294015 346 347 352 350
192 62.080000000 3042.000000000  0.033294015 348 351 352 347
193 62.080000000 3042.000000000  0.033294128 353 358 357 354
194 62.080000000 3042.000000000  0.033294128 353 355 359 358
195 62.080000000 3042.000000000  0.023921503 356 354 357 361
196 62.080000000 3042.000000000  0.023921503 360 362 359 355
197 62.080000000 3042.000000000  0.033294128 357 358 363 361
198 62.080000000 3042.000000000  0.033294128 359 362 363 358
199 62.080000000 3042.000000000  0.033294128 364 369 368 365
200 62.080000000 3042.000000000  0.033294128 364 366 370 369
201 62.080000000 3042.000000000  0.023921503 367 365 368 372
202 62.080000000 3042.000000000  0.023921503 371 373 370 366
203 62.080000000 3042.000000000  0.033294128 368 369 374 372
204 62.080000000 3042.000000000  0.033294128 370 373 374 369
205 62.080000000 3042.000000000  0.033294128 375 380 379 376
206 62.080000000 3042.000000000  0.033294128 375 377 381 380
207 62.080000000 3042.000000000  0.023921376 378 376 379 383
208 62.080000000 3042.000000000  0.023921376 382 384 381 377
209 62.080000000 3042.000000000  0.033294015 379 380 385 383
210 62.080000000 3042.000000000  0.033294015 381 384 385 380
211 62.080000000 3042.000000000  0.033294015 386 391 390 387
212 62.080000000 3042.000000000  0.033294015 386 388 392 391
213 62.080000000 3042.000000000  0.023921250 389 387 390 394
214 62.080000000 3042.000000000  0.023921250 393 395 392 388
215 62.080000000 3042.000000000  0.033294015 390 391 396 394
216 62.080000000 3042.000000000  0.033294015 392 395 396 391
217 62.080000000 3042.000000000  0.033294015 397 402 401 398
218 62.080000000 3042.000000000  0.033294015 397 399 403 402
219 62.080000000 3042.000000000  0.023921250 400 398 401 405
220 62.080000000 3042.000000000  0.023921250 404 406 403 399
221 62.080000000 3042.000000000  0.033294015 401 402 407 405
222 62.080000000 3042.000000000  0.033294015 403 406 407 402
223 62.080000000 3042.000000000  0.033294015 408 413 412 409
224 62.080000000 3042.000000000  0.033294015 408 410 414 413
225 62.080000000 3042.000000000  0.023921250 411 409 412 416
226 62.080000000 3042.000000000  0.023921250 415 417 414 410
227 62.080000000 3042.000000000  0.033294015 412 413 418 416
228 62.080000000 3042.000000000  0.033294015 414 417 418 413
229 62.080000000 3042.000000000  0.033294015 419 424 423 420
230 62.080000000 3042.000000000  0.033294015 419 421 425 424
231 62.080000000 3042.000000000  0.023921250 422 420 423 427
232 62.080000000 3042.000000000  0.023921250 426 428 425 421
233 62.080000000 3042.000000000  0.033294015 423 424 429 427
234 62.080000000 3042.000000000  0.033294015 425 428 429 424
235 62.080000000 3042.000000000  0.033294015 430 435 434 431
236 62.080000000 3042.000000000  0.033294015 430 432 436 435
237 62.080000000 3042.000000000  0.023921250 433 431 434 438
238 62.080000000 3042.000000000  0.023921250 437 439 436 432
239 62.080000000 3042.000000000  0.033294015 434 435 440 438
240 62.080000000 3042.000000000  0.033294015 436 439 440 435
241 62.080000000 3042.000000000  0.033294128 441 446 445 442
242 62.080000000 3042.000000000  0.033294128 441 443 447 446
243 62.080000000 3042.000000000  0.023921503 444 442 445 449
244 62.080000000 3042.000000000  0.023921503 448 450 447 443
245 62.080000000 3042.000000000  0.033294128 445 446 451 449
246 62.080000000 3042.000000000  0.033294128 447 450 451 446
247 62.080000000 3042.000000000  0.033294128 452 457 456 453
248 62.080000000 3042.000000000  0.033294128 452 454 458 457
249 62.080000000 3042.000000000  0.023921503 455 453 456 460
250 62.080000000 3042.000000000  0.023921503 459 461 458 454
251 62.080000000 3042.000000000  0.033294128 456 457 462 460
252 62.080000000 3042.000000000  0.033294128 458 461 462 457
253 62.080000000 3042.000000000  0.033294128 463 468 467 464
254 62.080000000 3042.000000000  0.033294128 463 465 469 468
255 62.080000000 3042.000000000  0.023921376 466 464 467 471
256 62.080000000 3042.000000000  0.023921376 470 472 469 465
257 62.080000000 3042.000000000  0.033294015 467 468 473 471
258 62.080000000 3042.000000000  0.033294015 469 472 473 468
259 62.080000000 3042.000000000  0.033294015 474 479 478 475
260 62.080000000 3042.000000000  0.033294015 474 476 480 479
261 62.080000000 3042.000000000  0.023921250 477 475 478 482
262 62.080000000 3042.000000000  0.023921250 481 483 480 476
263 62.080000000 3042.000000000  0.033294015 478 479 484 482
264 62.080000000 3042.000000000  0.033294015 480 483 484 479
265 62.080000000 3042.000000000  0.033294015 485 490 489 486
266 62.080000000 3042.000000000  0.033294015 485 487 491 490
267 62.080000000 3042.000000000  0.023921250 488 486 489 493
268 62.080000000 3042.000000000  0.023921250 492 494 491 487
269 62.080000000 3042.000000000  0.033294015 489 490 495 493
270 62.080000000 3042.000000000  0.033294015 491 494 495 490
271 62.080000000 3042.000000000  0.033294015 496 501 500 497
272 62.080000000 3042.000000000  0.033294015 496 498 502 501
273 62.080000000 3042.000000000  0.023921250 499 497 500 504
274 62.080000000 3042.000000000  0.023921250 503 505 502 498
275 62.080000000 3042.000000000  0.033294015 500 501 506 504
276 62.080000000 3042.000000000  0.033294015 502 505 506 501
277 62.080000000 3042.000000000  0.033294015 507 512 511 508
278 62.080000000 3042.000000000  0.033294015 507 509 513 512
279 62.080000000 3042.000000000  0.023921250 510 508 511 515
280 62.080000000 3042.000000000  0.023921250 514 516 513 509
281 62.080000000 3042.000000000  0.033294015 511 512 517 515
282 62.080000000 3042.000000000  0.033294015 513 516 517 512
283 62.080000000 3042.000000000  0.033294015 518 523 522 519
284 62.080000000 3042.000000000  0.033294015 518 520 524 523
285 62.080000000 3042.000000000  0.023921250 521 519 522 526
286 62.080000000 3042.000000000  0.023921250 525 527 524 520
287 62.080000000 3042.000000000  0.033294015 522 523 528 526
288 62.080000000 3042.000000000  0.033294015 524 527 528 523
289 62.080000000 3042.000000000  0.033294128 529 534 533 530
290 62.080000000 3042.000000000  0.033294128 529 531 535 534
291 62.080000000 3042.000000000  0.023921503 532 530 533 537
292 62.080000000 3042.000000000  0.023921503 536 538 535 531
293 62.080000000 3042.000000000  0.033294128 533 534 539 537
294 62.080000000 3042.000000000  0.033294128 535 538 539 534
295 62.080000000 3042.000000000  0.033294128 540 545 544 541
296 62.080000000 3042.000000000  0.033294128 540 542 546 545
297 62.080000000 3042.000000000  0.023921503 543 541 544 548
298 62.080000000 3042.000000000  0.023921503 547 549 546 542
299 62.080000000 3042.000000000  0.033294128 544 545 550 548
300 62.080000000 3042.000000000  0.033294128 546 549 550 545
301 62.080000000 3042.000000000  0.033294128 551 556 555 552
302 62.080000000 3042.000000000  0.033294128 551 553 557 556
303 62.080000000 3042.000000000  0.023921376 554 552 555 559
304 62.080000000 3042.000000000  0.023921376 558 560 557 553
305 62.080000000 3042.000000000  0.033294015 555 556 561 559
306 62.080000000 3042.000000000  0.033294015 557 560 561 556
307 62.080000000 3042.000000000  0.033294015 562 567 566 563
308 62.080000000 3042.000000000  0.033294015 562 564 568 567
309 62.080000000 3042.000000000  0.023921250 565 563 566 570
310 62.080000000 3042.000000000  0.023921250 569 571 568 564
311 62.080000000 3042.000000000  0.033294015 566 567 572 570
312 62.080000000 3042.000000000  0.033294015 568 571 572 567
313 62.080000000 3042.000000000  0.033294015 573 578 577 574
314 62.080000000 3042.000000000  0.033294015 573 575 579 578
315 62.080000000 3042.000000000  0.023921250 576 574 577 581
316 62.080000000 3042.000000000  0.023921250 580 582 579 575
317 62.080000000 3042.000000000  0.033294015 577 578 583 581
318 62.080000000 3042.000000000  0.033294015 579 582 583 578
319 62.080000000 3042.000000000  0.033294015 584 589 588 585
320 62.080000000 3042.000000000  0.033294015 584 586 590 589
321 62.080000000 3042.000000000  0.023921250 587 585 588 592
322 62.080000000 3042.000000000  0.023921250 591 593 590 586
323 62.080000000 3042.000000000  0.033294015 588 589 594 592
324 62.080000000 3042.000000000  0.033294015 590 593 594 589
325 62.080000000 3042.000000000  0.033294015 595 600 599 596
326 62.080000000 3042.000000000  0.033294015 595 597 601 600
327 62.080000000 3042.000000000  0.023921250 598 596 599 603
328 62.080000000 3042.000000000  0.023921250 602 604 601 597
329 62.080000000 3042.000000000  0.033294015 599 600 605 603
330 62.080000000 3042.000000000  0.033294015 601 604 605 600
331 62.080000000 3042.000000000  0.033294015 606 611 610 607
332 62.080000000 3042.000000000  0.033294015 606 608 612 611
333 62.080000000 3042.000000000  0.023921250 609 607 610 614
334 62.080000000 3042.000000000  0.023921250 613 615 612 608
335 62.080000000 3042.000000000  0.033294015 610 611 616 614
336 62.080000000 3042.000000000  0.033294015 612 615 616 611
337 62.080000000 3042.000000000  0.033294128 617 622 621 618
338 62.080000000 3042.000000000  0.033294128 617 619 623 622
339 62.080000000 3042.000000000  0.023921503 620 618 621 625
340 62.080000000 3042.000000000  0.023921503 624 626 623 619
341 62.080000000 3042.000000000  0.033294128 621 622 627 625
342 62.080000000 3042.000000000  0.033294128 623 626 627 622
343 62.080000000 3042.000000000  0.033294128 628 633 632 629
344 62.080000000 3042.000000000  0.033294128 628 630 634 633
345 62.080000000 3042.000000000  0.023921503 631 629 632 636
346 62.080000000 3042.000000000  0.023921503 635 637 634 630
347 62.080000000 3042.000000000  0.033294128 632 633 638 636
348 62.080000000 3042.000000000  0.033294128 634 637 638 633
349 62.080000000 3042.000000000  0.033294128 639 644 643 640
350 62.080000000 3042.000000000  0.033294128 639 641 645 644
351 62.080000000 3042.000000000  0.023921376 642 640 643 647
352 62.080000000 3042.000000000  0.023921376 646 648 645 641
353 62.080000000 3042.000000000  0.033294015 643 644 649 647
354 62.080000000 3042.000000000  0.033294015 645 648 649 644
355 62.080000000 3042.000000000  0.033294015 650 655 654 651
356 62.080000000 3042.000000000  0.033294015 650 652 656 655
357 62.080000000 3042.000000000  0.023921250 653 651 654 658
358 62.080000000 3042.000000000  0.023921250 657 659 656 652
359 62.080000000 3042.000000000  0.033294015 654 655 660 658
360 62.080000000 3042.000000000  0.033294015 656 659 660 655
361 62.080000000 3042.000000000  0.033294015 661 666 665 662
362 62.080000000 3042.000000000  0.033294015 661 663 667 666
363 62.080000000 3042.000000000  0.023921250 664 662 665 669
364 62.080000000 3042.000000000  0.023921250 668 670 667 663
365 62.080000000 3042.000000000  0.033294015 665 666 671 669
366 62.080000000 3042.000000000  0.033294015 667 670 671 666
367 62.080000000 3042.000000000  0.033294015 672 677 676 673
368 62.080000000 3042.000000000  0.033294015 672 674 678 677
369 62.080000000 3042.000000000  0.023921250 675 673 676 680
370 62.080000000 3042.000000000  0.023921250 679 681 678 674
371 62.080000000 3042.000000000  0.033294015 676 677 682 680
372 62.080000000 3042.000000000  0.033294015 678 681 682 677
373 62.080000000 3042.000000000  0.033294015 683 688 687 684
374 62.080000000 3042.000000000  0.033294015 683 685 689 688
375 62.080000000 3042.000000000  0.023921250 686 684 687 691
376 62.080000000 3042.000000000  0.023921250 690 692 689 685
377 62.080000000 3042.000000000  0.033294015 687 688 693 691
378 62.080000000 3042.000000000  0.033294015 689 692 693 688
379 62.080000000 3042.000000000  0.033294015 694 699 698 695
380 62.080000000 3042.000000000  0.033294015 694 696 700 699
381 62.080000000 3042.000000000  0.023921250 697 695 698 702
382 62.080000000 3042.000000000  0.023921250 701 703 700 696
383 62.080000000 3042.000000000  0.033294015 698 699 704 702
384 62.080000000 3042.000000000  0.033294015 700 703 704 699
385 62.080000000 3042.000000000  0.033294128 705 710 709 706
386 62.080000000 3042.000000000  0.033294128 705 707 711 710
387 62.080000000 3042.000000000  0.023921503 708 706 709 713
388 62.080000000 3042.000000000  0.023921503 712 714 711 707
389 62.080000000 3042.000000000  0.033294128 709 710 715 713
390 62.080000000 3042.000000000  0.033294128 711 714 715 710
391 62.080000000 3042.000000000  0.033294128 716 721 720 717
392 62.080000000 3042.000000000  0.033294128 716 718 722 721
393 62.080000000 3042.000000000  0.023921503 719 717 720 724
394 62.080000000 3042.000000000  0.023921503 723 725 722 718
395 62.080000000 3042.000000000  0.033294128 720 721 726 724
396 62.080000000 3042.000000000  0.033294128 722 725 726 721
397 62.080000000 3042.000000000  0.033294128 727 732 731 728
398 62.080000000 3042.000000000  0.033294128 727 729 733 732
399 62.080000000 3042.000000000  0.023921376 730 728 731 735
400 62.080000000 3042.000000000  0.023921376 734 736 733 729
401 62.080000000 3042.000000000  0.033294015 731 732 737 735
402 62.080000000 3042.000000000  0.033294015 733 736 737 732
403 62.080000000 3042.000000000  0.033294015 738 743 742 739
404 62.080000000 3042.000000000  0.033294015 738 740 744 743
405 62.080000000 3042.000000000  0.023921250 741 739 742 746
406 62.080000000 3042.000000000  0.023921250 745 747 744 740
407 62.080000000 3042.000000000  0.033294015 742 743 748 746
408 62.080000000 3042.000000000  0.033294015 744 747 748 743
409 62.080000000 3042.000000000  0.033294015 749 754 753 750
410 62.080000000 3042.000000000  0.033294015 749 751 755 754
411 62.080000000 3042.000000000  0.023921250 752 750 753 757
412 62.080000000 3042.000000000  0.023921250 756 758 755 751
413 62.080000000 3042.000000000  0.033294015 753 754 759 757
414 62.080000000 3042.000000000  0.033294015 755 758 759 754